% Model:              infinitegrating_9.9um_Ti-Ag_EE_1storder_60stg_Huilong_FINAL_Growth_Design.mph
% Version:            COMSOL 5.1.0.234
% Date:               Mar 6 2024, 14:41
% Table:              Accumulated Probe Table 1 - 
% Cladding1                                       Grating_Layer                                     DutyCycle                                         Eigenfrequency                                    Frequency, Global Var freq                        emw.damp/emw.freq/(Period[um]), Global Var Loss   -emw.Poavy/emw.freq/(Period[um])/2 (N/cm), Boundary Probe 1Energy density time average (J/m), Domain Probe 1 (freq*2*pi/c_const-2*pi/wavelength[um])*wavelength/Period/2, delta kappac_const/emw.freq, Global Var wavelength           bnd1/dom1, Global Variable Surface Loss           abs(emw.Ey)^2 (kg^2*m^4/(s^6*A^2)), Domain Probe Core Ey2emw.normE^2 (kg^2*m^4/(s^6*A^2)), Domain Probe All E2dom2/dom3, Global Var Gamma
2.8                                               0.25                                              0.4                                               3.0218028650541418E13+2.246084506539338E9i        3.0218028650541418E13                             3.011224181178012                                 2.1307339949503173E-9                             2.942588822282395E-7                              -42.83552765030904+1.50242815638544i              9.920980003923209                                 0.007241018448842004                              4542.8599995159675                                6332.894699872902                                 0.7173433658398184
2.8                                               0.25                                              0.4                                               3.0218386774329727E13+1.1999155068031116E9i       3.0218386774329727E13                             1.6086535293086335                                1.997336351491926E-9                              2.7415168066161194E-7                             -42.59597510388336+0.8026353583116734i            9.920862428522202                                 0.007285515619206633                              4234.155505109406                                 5899.287572360188                                 0.7177401428856613
2.8                                               0.25                                              0.4                                               3.1631207844325848E13+2.0835591435773E10i         3.1631207844325848E13                             26.685367170769176                                6.376594671006188E-8                              1.5101238844787948E-7                             902.4540215978312+13.93713332553119i              9.477742976981455                                 0.4222563947597591                                329.36848531457184                                3566.034345210565                                 0.09236267893968475
2.8                                               0.25                                              0.4                                               3.1632715636238168E13+1.785401430605654E10i       3.1632715636238168E13                             22.86559605769349                                 3.6542714628934045E-7                             1.4315317149356353E-7                             903.4625985309096+11.9427268741805i               9.47729121481307                                  2.5527003172666043                                312.4664867922773                                 3378.5270591530043                                0.09248600982660522
2.8                                               0.25                                              0.4                                               3.186696892472346E13+1.6865673400811554E11i       3.186696892472346E13                              214.41050269564562                                2.170875155594534E-5                              1.2083877470834948E-7                             1060.1569416517968+112.81615860848494i            9.407623885038246                                 179.65054353075425                                431.4476742171879                                 2838.2785769603533                                0.15201033391135407
2.8                                               0.25                                              0.4                                               3.1871728219584547E13+1.6163436890223248E11i      3.1871728219584547E13                             205.4524025773721                                 2.13618239461103E-5                               1.1519584615735665E-7                             1063.340481088101+108.11882908736499i             9.40621907712502                                  185.4391860356689                                 405.9893128050439                                 2702.4514443328403                                0.15023001196059343
2.8                                               0.25                                              0.4                                               3.251501658726736E13+4.5506917223751733E11i       3.251501658726736E13                              566.9915179564732                                 9.097812224643556E-5                              1.7604731589432716E-7                             1493.6424369886895+304.4002732230622i             9.220123175868116                                 516.7822172366745                                 314.6424795195355                                 4214.615200016363                                 0.07465509058058585
2.8                                               0.25                                              0.4                                               3.2534011875569023E13+4.387865839878914E11i       3.2534011875569023E13                             546.3850972887398                                 8.854081662959189E-5                              1.7163091889773526E-7                             1506.3485733339548+293.50868879075574i            9.214739920382371                                 515.879173742281                                  316.2660256008188                                 4095.398052057785                                 0.07722473409926693
2.8                                               0.25                                              0.45                                              3.0218051464650176E13+2.426454799846898E9i        3.0218051464650176E13                             3.2530360412553327                                2.0890410689168422E-9                             2.8893590128550945E-7                             -42.82026706716524+1.6230796307408337i            9.92097251375406                                  0.007230119412722511                              4460.698659136687                                 6218.44657318185                                  0.7173332771522453
2.8                                               0.25                                              0.45                                              3.0218452803455668E13+1.2609626979103656E9i       3.0218452803455668E13                             1.6904920809259862                                1.961200821215306E-9                              2.6925212447937515E-7                             -42.55180756803731+0.8434704286399476i            9.920840750844691                                 0.007283882439209961                              4158.749324582727                                 5793.7971079740255                                0.7177933999205859
2.8                                               0.25                                              0.45                                              3.163123989083193E13+2.1372474406740437E10i       3.163123989083193E13                              27.37295703027992                                 2.5520213779575625E-8                             1.4787977574786794E-7                             902.4754578229216+14.296259658452726i             9.47773337481129                                  0.17257406329238084                               322.0063215847924                                 3492.449263279633                                 0.09220071568982754
2.8                                               0.25                                              0.45                                              3.1632809083721434E13+1.8043916700660896E10i      3.1632809083721434E13                             23.108735361877123                                3.5259886421145466E-7                             1.403981591146909E-7                              903.5251064773347+12.06975446543449i              9.477263217646904                                 2.5114208507777995                                306.13497265844626                                3313.5722963835497                                0.09238819777451741
2.8                                               0.25                                              0.45                                              3.1866842278546637E13+1.7004402863560074E11i      3.1866842278546637E13                             216.17500642319155                                2.1228310280321565E-5                             1.1859036008053734E-7                             1060.0722267706772+113.74413371515062i            9.407661273104113                                 179.00536153111383                                424.51146178263207                                2785.7557869732727                                0.15238645963430464
2.8                                               0.25                                              0.45                                              3.1871898539908156E13+1.6210945437559714E11i      3.1871898539908156E13                             206.05517951005157                                2.098472952125159E-5                              1.13169405104131E-7                               1063.4544100382584+108.43661846251749i            9.406168811205808                                 185.42758532611165                                399.21136656029995                                2654.7781833297463                                0.15037465994977767
2.8                                               0.25                                              0.45                                              3.251371201967585E13+4.5904250812522723E11i       3.251371201967585E13                              571.9650274487396                                 8.92711397058341E-5                               1.722295494658843E-7                              1492.769798815155+307.0580769232755i              9.220493120520318                                 518.3265007815468                                 307.1502750083146                                 4124.958071032205                                 0.07446142959980528
2.8                                               0.25                                              0.45                                              3.2534042597650406E13+4.4006147273241705E11i      3.2534042597650406E13                             547.9720946683325                                 8.704367595687783E-5                              1.684436769711406E-7                              1506.3691236382565+294.3614744898056i             9.214731218851078                                 516.7524096009321                                 310.28620844457845                                4019.448742111056                                 0.0771962098169746
2.8                                               0.25                                              0.5                                               3.0218147681699348E13+2.58712139495314E9i         3.0218147681699348E13                             3.468423291539586                                 2.0459289541865495E-9                             2.832498375521599E-7                              -42.7559065306935+1.7305511063578036i             9.920940924567645                                 0.007223054289695059                              4373.274580262075                                 6096.01514588712                                  0.7173989033168069
2.8                                               0.25                                              0.5                                               3.021853771132013E13+1.3218495098550646E9i        3.021853771132013E13                              1.7721141581669824                                1.9227479500204723E-9                             2.640078680093757E-7                              -42.495011857149144+0.8841982197590833i           9.920812875326364                                 0.007282919121002065                              4078.0861899795445                                5680.865660875395                                 0.7178635147220003
2.8                                               0.25                                              0.5                                               3.163149033204857E13+2.1839972065555283E10i       3.163149033204857E13                              27.97148670108859                                 9.01450969107366E-9                               1.4444778734656307E-7                             902.6429804314017+14.608973469354654i             9.477658335189304                                 0.0624066997263574                                313.7164261544666                                 3411.5570385155                                   0.09195696352507053
2.8                                               0.25                                              0.5                                               3.1632945855234562E13+1.824420041959006E10i       3.1632945855234562E13                             23.36513648914879                                 3.4184508078657E-7                                1.3743068960966037E-7                             903.6165942961227+12.203726227275453i             9.477222240760447                                 2.4873998795865866                                299.2772106122774                                 3243.591419608773                                 0.09226723464707347
2.8                                               0.25                                              0.5                                               3.1867303334544164E13+1.7134238385505154E11i      3.1867303334544164E13                             217.82243889381536                                2.0810231212418493E-5                             1.1635046825292175E-7                             1060.3806316905902+114.61261637153048i            9.407525163104244                                 178.8581646889579                                 417.48700021729877                                2732.735650259107                                 0.15277255236075035
2.8                                               0.25                                              0.5                                               3.187217090134406E13+1.6262183421898303E11i       3.187217090134406E13                              206.7046923441859                                 2.0591758998826883E-5                             1.1102069218669651E-7                             1063.63659529835+108.7793544108872i               9.406088431439656                                 185.4767664770006                                 392.0144231072554                                 2604.166571560037                                 0.15053354397081337
2.8                                               0.25                                              0.5                                               3.251422661217066E13+4.6309138019353925E11i       3.251422661217066E13                              577.000772799777                                  8.768381399249341E-5                              1.6834857864748395E-7                             1493.1140148279599+309.7664075222908i             9.220347190659682                                 520.8467733850036                                 300.43277391662184                                4032.075628166045                                 0.0745106991093992
2.8                                               0.25                                              0.5                                               3.2534302092373242E13+4.4149953153446686E11i      3.2534302092373242E13                             549.7584052300319                                 8.546242416146325E-5                              1.650382922730076E-7                              1506.542702226633+295.32340625526103i             9.214657721835009                                 517.833909842515                                  303.9981301673645                                 3938.1687347568645                                0.07719276410997498
2.8                                               0.25                                              0.55                                              3.0218320551201004E13+2.7183529930635386E9i       3.0218320551201004E13                             3.6443380342561147                                2.015699207305002E-9                              2.7916126289131503E-7                             -42.640272410110796+1.8183332211600227i           9.920884169986905                                 0.0072205548378313725                             4310.858662789987                                 6007.792797311972                                 0.7175444973266681
2.8                                               0.25                                              0.55                                              3.021863892971125E13+1.3793922669400742E9i        3.021863892971125E13                              1.84925164320646                                  1.8950878184071112E-9                             2.602164296931165E-7                              -42.42730587354913+0.9226891394857728i            9.92077964521563                                  0.007282736991826626                              4019.9181500166637                                5599.17758573569                                  0.7179479644042173
2.8                                               0.25                                              0.55                                              3.16319491861545E13+2.220024824753754E10i         3.16319491861545E13                               28.43249702354149                                 1.5397063816238812E-8                             1.4176472524569478E-7                             902.9499124842305+14.849965773210211i             9.477520851962579                                 0.10860997888969863                               306.8322012365623                                 3348.1159134548825                                0.09164324329498715
2.8                                               0.25                                              0.55                                              3.1633121151568598E13+1.8444987898377083E10i      3.1633121151568598E13                             23.6221517872698                                  3.3569865282298685E-7                             1.3519819560812213E-7                             903.733851748903+12.338034959071154i              9.477169722316008                                 2.4830113398556244                                293.97482800887906                                3190.948371466597                                 0.09212772937274576
2.8                                               0.25                                              0.55                                              3.1868354955844555E13+1.7244447286299097E11i      3.1868354955844555E13                             219.21625749070543                                2.0605694843567083E-5                             1.1494212553232117E-7                             1061.0840715865322+115.34981461654318i            9.40721472493261                                  179.27017399528538                                413.23929500517204                                2698.5821208075927                                0.15313200655220532
2.8                                               0.25                                              0.55                                              3.1872537200789277E13+1.6314689144452008E11i      3.1872537200789277E13                             207.3696966717259                                 2.0322345476750682E-5                             1.0950238470899429E-7                             1063.8816166225981+109.13057038564851i            9.405980330695984                                 185.58815436538535                                387.0355855778105                                 2568.2920739106908                                0.1506976521515636
2.8                                               0.25                                              0.55                                              3.2516619751226594E13+4.6683792245657025E11i      3.2516619751226594E13                             581.6260654393968                                 8.686393733772495E-5                              1.6569954955107618E-7                             1494.7148092278653+312.27250672233316i            9.219668596970052                                 524.2255490317409                                 296.7514261322856                                 3966.9717448982315                                0.07480553056974136
2.8                                               0.25                                              0.55                                              3.2534787294910777E13+4.4303199221669696E11i      3.2534787294910777E13                             551.6584091437792                                 8.437333582542525E-5                              1.6254524132013645E-7                             1506.8672590061412+296.3484843726839i             9.21452030045682                                  519.0760131774638                                 299.48426862738836                                3878.553016775831                                 0.07721546342979821
2.8                                               0.25                                              0.6000000000000001                                3.021857227217433E13+2.8146404650065613E9i        3.021857227217433E13                              3.7733936249182904                                2.0200938335351273E-9                             2.7967348191710845E-7                             -42.47189375971986+1.8827408641196652i            9.920801528934343                                 0.0072230438856332345                             4319.843594767642                                 6018.4127164470265                                0.7177712460566951
2.8                                               0.25                                              0.6000000000000001                                3.021874874504516E13+1.4317361820214922E9i        3.021874874504516E13                              1.9194183765826118                                1.8986153588353977E-9                             2.606849306226221E-7                              -42.353849309832604+0.9577025023422489i           9.92074359297076                                  0.007283180329222435                              4027.5869333833716                                5609.147727165969                                 0.7180390193464072
2.8                                               0.25                                              0.6000000000000001                                3.163259838492054E13+2.2438133498666958E10i       3.163259838492054E13                              28.736573737333487                                4.4498966261375206E-8                             1.4136974822346888E-7                             903.3841679640877+15.009089572090039i             9.477326343918461                                 0.3147700750731622                                304.7027629342686                                 3338.5084336439527                                0.09126913080812173
2.8                                               0.25                                              0.6000000000000001                                3.1633316748605137E13+1.863782109955243E10i       3.1633316748605137E13                             23.86896208050457                                 3.369963765141582E-7                              1.3517483407984802E-7                             903.8646885425097+12.467022995847277i             9.47711112250723                                  2.49304080014697                                  293.4575425227375                                 3190.4503825773722                                0.0919799737758879
2.8                                               0.25                                              0.6000000000000001                                3.1869966731194047E13+1.7329004595963965E11i      3.1869966731194047E13                             220.28003286863859                                2.0836216628214693E-5                             1.1560008469903119E-7                             1062.1622040698812+115.9154268297027i             9.406738969280623                                 180.24395641631745                                416.17312666803525                                2712.3529455531784                                0.15343619913121456
2.8                                               0.25                                              0.6000000000000001                                3.1872955536092676E13+1.6365996846888797E11i      3.1872955536092676E13                             208.01911870627623                                2.039373347186451E-5                              1.0979783697521652E-7                             1064.1614452473923+109.47377268527724i            9.405856876389059                                 185.7389365190107                                 388.4475819212461                                 2574.955435383274                                 0.15085604068461386
2.8                                               0.25                                              0.6000000000000001                                3.2520789150757645E13+4.700344165267456E11i       3.2520789150757645E13                             585.5334481693387                                 8.775082465914896E-5                              1.6609921794794462E-7                             1497.5037618395927+314.41067324223405i            9.218486569014138                                 528.3036593625038                                 299.27775851379545                                3973.303942100216                                 0.07532214068566952
2.8                                               0.25                                              0.6000000000000001                                3.253540459168345E13+4.4456846346068E11i          3.253540459168345E13                              553.5611027434667                                 8.468750378236566E-5                              1.6274311283636748E-7                             1507.280174926895+297.37624519455676i             9.21434547264341                                  520.3753468050966                                 299.9873976576821                                 3883.123386960432                                 0.07725415027115612
2.8                                               0.26                                              0.4                                               3.0218430647908465E13+1.5174557355147793E9i       3.0218430647908465E13                             2.0343573914455124                                2.183042024330688E-9                              2.989499701786316E-7                              -42.56662763283943+1.0150411600579963i            9.920848024606128                                 0.007302365753795706                              4617.544412799396                                 6432.397950890775                                 0.7178573912952539
2.8                                               0.26                                              0.4                                               3.0218578116597953E13+1.0025514282787788E9i       3.0218578116597953E13                             1.3440510372453207                                2.032407396918485E-9                              2.782200218653796E-7                              -42.467984366912106+0.6706165728337855i           9.920799610201879                                 0.007305036435881976                              4297.888569923917                                 5986.370167274241                                 0.7179456748964903
2.8                                               0.26                                              0.4                                               3.1632475919954645E13+1.8921309601314186E10i      3.1632475919954645E13                             24.232662385185474                                3.053829704929697E-7                              1.538252665369051E-7                              903.3022499363389+12.656651260419842i             9.477363035338078                                 1.9852588418541985                                335.14660880781594                                3630.085026321122                                 0.09232472693551955