% Model:              infinitegrating_4.6um-5L_Ti-Ag_EE.mph
% Version:            COMSOL 5.1.0.234
% Date:               Feb 16 2022, 20:17
% Table:              Accumulated Probe Table 1 - 
% Cladding2                                       Grating_Layer                                     DutyCycle                                         Eigenfrequency                                    Frequency, Global Var freq                        emw.damp/emw.freq/(Period[um]), Global Var Loss   -emw.Poavy/emw.freq/(Period[um])/2 (N/cm), Boundary Probe 1Energy density time average (J/m), Domain Probe 1 (freq*2*pi/c_const-2*pi/wavelength[um])*wavelength/Period/2, delta kappac_const/emw.freq, Global Var wavelength           bnd1/dom1, Global Variable Surface Loss           abs(emw.Ey)^2 (kg^2*m^4/(s^6*A^2)), Domain Probe Core Ey2emw.normE^2 (kg^2*m^4/(s^6*A^2)), Domain Probe All E2dom2/dom3, Global Var Gamma
0.1                                               0.1                                               0.3                                               6.516445603904099E13+1.7603943636813876E8i        6.516445603904099E13                              0.236668514215612                                 9.981580725703496E-13                             1.4668971673224905E-7                             -5.25427664987009+0.11832006286824369i            4.60055183795887                                  6.804553821535243E-6                              2351.0405296843796                                3163.0870169078444                                0.7432740601561761
0.1                                               0.1                                               0.3                                               6.516450450658271E13+7.316901138080746E7i         6.516450450658271E13                              0.09836880126197166                               1.2785440625923983E-12                            1.635964788915316E-7                              -5.221700525442574+0.04917853752087601i           4.6005484161966725                                7.815229711882163E-6                              2622.5100670553998                                3527.5917614464834                                0.7434278806627131
0.1                                               0.1                                               0.3                                               6.74910239807688E13+1.844381723531978E10i         6.74910239807688E13                               23.94120922083856                                 -2.7610000650588483E-7                            1.3452260581361045E-7                             1558.4843424445573+12.396504214259123i            4.441960431440842                                 -2.052443192250075                                526.3727098657423                                 3081.4324481818785                                0.17082078504635592
0.1                                               0.1                                               0.3                                               6.749904487751264E13+3.357250907848996E9i         6.749904487751264E13                              4.3574003270019706                                -2.9888687715649786E-7                            1.4615018816079527E-7                             1563.875367470374+2.2564838122434243i             4.441432594254028                                 -2.045066659973513                                582.3706403644082                                 3344.2504627824933                                0.17414085662706635
0.1                                               0.1                                               0.5                                               6.516425374215763E13+1.435130889858201E8i         6.516425374215763E13                              0.19294048926220983                               1.0052238551690414E-12                            1.477222440476853E-7                              -5.390244933174818+0.09645837354141502i           4.600566119980762                                 6.804823888571267E-6                              2366.8398360695064                                3185.418833274582                                 0.7430231187640766
0.1                                               0.1                                               0.5                                               6.5164480861804305E13+1.3157458320231225E8i       6.5164480861804305E13                             0.17688962141460352                               1.2802361267661784E-12                            1.63793760420534E-7                               -5.237592712587116+0.08843423540509683i           4.60055008549483                                  7.816147107675069E-6                              2625.576079655915                                 3531.8620852784743                                0.7433971135509089
0.1                                               0.1                                               0.5                                               6.746154659478145E13+3.116761518593487E10i        6.746154659478145E13                              40.47515951546786                                 -2.1336061083028553E-7                            1.3536528817117933E-7                             1538.6719286174584+20.948454870879633i            4.4439013502129034                                -1.5761840698811587                               492.64063032967664                                3108.5655640901928                                0.15847844292576796
0.1                                               0.1                                               0.5                                               6.7498188617359984E13+8.161425045127487E9i        6.7498188617359984E13                             10.592907194654464                                -3.062273261818345E-7                             1.468347134214797E-7                              1563.299855771492+5.4854772564400065i             4.441488936828978                                 -2.0855240497717147                               583.8947783344645                                 3360.655532364564                                 0.17374431051064487
0.1                                               0.1                                               0.7                                               6.516408481009515E13+7.121291040870264E7i         6.516408481009515E13                              0.09573962551067935                               9.973264235056103E-13                             1.4655685945594891E-7                             -5.503787970269382+0.04786379808083334i           4.6005780465370165                                6.805047728287192E-6                              2347.519503827812                                 3160.3393542915546                                0.7428061485359233
0.1                                               0.1                                               0.7                                               6.516440980662143E13+2.003809993064229E8i         6.516440980662143E13                              0.2693936540997335                                1.2709031278207955E-12                            1.627152412042614E-7                              -5.285350498444949+0.13468057456146537i           4.600555101928319                                 7.810596711253329E-6                              2608.0061011217954                                3508.6409178593676                                0.7433094928143703
0.1                                               0.1                                               0.7                                               6.74063713735736E13+3.0799819923312588E10i        6.74063713735736E13                               40.03026985410261                                 -1.1321673737879935E-7                            1.349629015468874E-7                              1501.5874220048033+20.701251406167863i            4.447538888253113                                 -0.8388730242248594                               413.0538921366427                                 3110.1604045929953                                0.13280790647538793
0.1                                               0.1                                               0.7                                               6.749480673819508E13+1.6286557624973104E10i       6.749480673819508E13                              21.13976870887388                                 -3.086872185364008E-7                             1.467177826587292E-7                              1561.026818753993+10.946561531043749i             4.441711481045674                                 -2.1039523154082707                               578.72958538871                                   3359.7190307867327                                0.17225535233319633
0.1                                               0.11                                              0.3                                               6.516447441591772E13+1.773304294072963E8i         6.516447441591772E13                              0.23840406606296727                               1.0410536053643494E-12                            1.5295056955381415E-7                             -5.241925137873839+0.11918776831372212i           4.600550540568309                                 6.806470929799739E-6                              2451.45903914063                                  3298.080815955261                                 0.7432986563825592
0.1                                               0.11                                              0.3                                               6.516451032436505E13+7.84010106784693E7i          6.516451032436505E13                              0.10540271904858671                               1.3352614100825813E-12                            1.708150587535718E-7                              -5.217790263140113+0.05269508187365035i           4.600548005467132                                 7.817000560875077E-6                              2738.251217367241                                 3683.2419185910776                                0.7434350710296745
0.1                                               0.11                                              0.3                                               6.749297110865991E13+1.7423631182888885E10i       6.749297110865991E13                              22.616292490778704                                -2.926637971583964E-7                             1.404422857121851E-7                              1559.7930508751313+11.710814232790995i            4.441832283799611                                 -2.083872358487281                                551.6428006169157                                 3216.2553633701123                                0.17151710243520074
0.1                                               0.11                                              0.3                                               6.749949065302262E13+3.572265034892612E9i         6.749949065302262E13                              4.636438103649511                                 -3.1525832128704843E-7                            1.5329317328612917E-7                             1564.1749832124656+2.4009996409362593i            4.44140326244929                                  -2.056571173581242                                611.1790148769185                                 3507.6094879892585                                0.17424374548241892
0.1                                               0.11                                              0.5                                               6.5164266918496086E13+1.4533729373815292E8i       6.5164266918496086E13                             0.19539292959279317                               1.060002530611462E-12                             1.5576366801573234E-7                             -5.381388819872362+0.09768446256688315i           4.60056518973756                                  6.8051975413444976E-6                             2495.746487807095                                 3358.8127213702714                                0.7430442524907791
0.1                                               0.11                                              0.5                                               6.5164493396918164E13+1.384777882735115E8i        6.5164493396918164E13                             0.18617029394217247                               1.3543095855480738E-12                            1.7327051244125776E-7                             -5.229167580749486+0.09307403472999685i           4.600549200527939                                 7.816157328023221E-6                              2777.5388383502827                                3736.2021330662806                                0.74341235817206
0.1                                               0.11                                              0.5                                               6.746483223597087E13+2.9626097945557102E10i       6.746483223597087E13                              38.47142728031841                                 -2.3301559114945092E-7                            1.4333591631200093E-7                             1540.8802819280254+19.912366477523527i            4.4436849253759325                                -1.6256608751308574                               526.7240631807992                                 3290.2305888234664                                0.16008727928371327
0.1                                               0.11                                              0.5                                               6.749922921005181E13+8.275813606789685E9i         6.749922921005181E13                              10.741209229742417                                -3.2865671740575486E-7                            1.5588844721797004E-7                             1563.99926151408+5.562360380395116i               4.441420465218522                                 -2.1082814234861966                               620.7684834801433                                 3567.5876851469234                                0.1740023058338873
0.1                                               0.11                                              0.7                                               6.5164088231145805E13+7.276698300670573E7i        6.5164088231145805E13                             0.0978289371530664                                1.0536262020780522E-12                            1.5483603843090086E-7                             -5.501488605211429+0.0489083252123166i            4.600577805011185                                 6.804786616574798E-6                              2480.1640350114553                                3338.867378319155                                 0.7428159773929135
0.1                                               0.11                                              0.7                                               6.516443220334952E13+2.068287338782512E8i         6.516443220334952E13                              0.278061939180811                                 1.3489658342710113E-12                            1.7271345922793166E-7                             -5.270297153974441+0.13901424192393685i           4.600553520737811                                 7.810426820823312E-6                              2768.3481296689283                                3724.2225790212788                                0.7433358428315111
0.1                                               0.11                                              0.7                                               6.7409854958841766E13+3.0590114734781845E10i      6.7409854958841766E13                             39.75566317744058                                 -1.2455907181100114E-7                            1.4259369738157415E-7                             1503.928817980841+20.560303834404078i             4.447309049738252                                 -0.8735243850062118                               442.1637765591004                                 3284.916490644941                                 0.13460426705468234
0.1                                               0.11                                              0.7                                               6.7496676223757305E13+1.5776434479827946E10i      6.7496676223757305E13                             20.477067422935047                                -3.3033855652959997E-7                            1.5447941801295815E-7                             1562.2833420297873+10.603696296699898i            4.441588456980639                                 -2.1383985049833045                               611.1927024715579                                 3536.806666102062                                 0.17280919206849293
0.1                                               0.12000000000000001                               0.3                                               6.516449400980235E13+1.7620602337172812E8i        6.516449400980235E13                              0.23689233678524937                               1.0533975693561232E-12                            1.5476874860251427E-7                             -5.228755647511381+0.11843202973853353i           4.600549157258918                                 6.806267924679789E-6                              2480.662228617309                                 3337.2778761185136                                0.7433190524435699
0.1                                               0.12000000000000001                               0.3                                               6.516451880178569E13+8.159652100283223E7i         6.516451880178569E13                              0.1096987651729964                                1.3474114165394457E-12                            1.7239333235130463E-7                             -5.212092398142697+0.05484285620351168i           4.600547406969954                                 7.815913748877929E-6                              2763.5763497155103                                3717.2713660786744                                0.7434421858285767
0.1                                               0.12000000000000001                               0.3                                               6.749437974418899E13+1.6422654431777832E10i       6.749437974418899E13                              21.31655568958387                                 -2.982129421199304E-7                             1.417388009704642E-7                              1560.7398264829026+11.038035254599803i            4.441739580928751                                 -2.103961230644758                                558.3001596680706                                 3245.330633143818                                 0.172031827502036
0.1                                               0.12000000000000001                               0.3                                               6.749990680679584E13+3.6630599586602683E9i        6.749990680679584E13                              4.754251404799894                                 -3.1932316587787365E-7                            1.5456461558029337E-7                             1564.454689519342+2.4620249504347553i             4.441375880089617                                 -2.06595257704368                                 616.5654567202404                                 3536.6134012625234                                0.17433781608703253
0.1                                               0.12000000000000001                               0.5                                               6.51642833386787E13+1.4541873615551764E8i         6.51642833386787E13                               0.19550237234053983                               1.057176640920973E-12                             1.5534082506860659E-7                             -5.370352445983661+0.09773920184656693i           4.600564030481038                                 6.805529972266247E-6                              2489.0252022033915                                3349.6879836488097                                0.7430618058617214
0.1                                               0.12000000000000001                               0.5                                               6.516450633807692E13+1.420004919250846E8i         6.516450633807692E13                              0.19090619803498707                               1.354667125855818E-12                             1.7330889418912694E-7                             -5.220469537010223+0.09544172305097447i           4.6005482868950285                                7.816489350959162E-6                              2778.2019388246727                                3737.0241830198897                                0.7434262672016227
0.1                                               0.12000000000000001                               0.5                                               6.746722155095193E13+2.8061919682615517E10i       6.746722155095193E13                              36.43894891545772                                 -2.3755742925282764E-7                            1.431469439967618E-7                              1542.4861942429252+18.861047101441468i            4.443527554689557                                 -1.659535457901228                                529.8373107090795                                 3284.7979739796265                                0.16129981658116066
0.1                                               0.12000000000000001                               0.5                                               6.7500100618842195E13+8.198277478506965E9i        6.7500100618842195E13                             10.64043743369153                                 -3.312632628008939E-7                             1.5586088119667413E-7                             1564.584954952941+5.510246605423771i              4.441363127632361                                 -2.1253778386052353                               621.3890453010904                                 3566.701656785711                                 0.1742195185063728
0.1                                               0.12000000000000001                               0.7                                               6.5164097871106664E13+7.37899584900839E7i         6.5164097871106664E13                             0.09920422484860132                               1.0684511783609938E-12                            1.570047902114662E-7                              -5.495009370793351+0.04959589003303584i           4.60057712443106                                  6.805213885015369E-6                              2514.9287171018946                                3385.631169268697                                 0.7428241859095159
0.1                                               0.12000000000000001                               0.7                                               6.516445272148986E13+2.0881778198626414E8i        6.516445272148986E13                              0.28073594042395855                               1.366472770389498E-12                             1.7493307714422902E-7                             -5.256506450568827+0.14035112587473464i           4.600552072175                                    7.81140303879104E-6                               2804.0038280873937                                3772.074513736621                                 0.743358546570637
0.1                                               0.12000000000000001                               0.7                                               6.741265212835578E13+3.0023907313920906E10i       6.741265212835578E13                              39.01818707163819                                 -1.3014956543274476E-7                            1.444170323118577E-7                              1505.8088584966456+20.1797430974756i              4.447124516465927                                 -0.9012064806296314                               452.6449694227637                                 3325.9456002768866                                0.13609512115444114
0.1                                               0.12000000000000001                               0.7                                               6.74980896353312E13+1.5111122413425163E10i        6.74980896353312E13                               19.613113050943525                                -3.3991913872047197E-7                            1.5725760179754563E-7                             1563.2333277246514+10.156525099450906i            4.441495450014583                                 -2.1615434474073054                               623.6276065813213                                 3599.8725070724863                                0.17323602581927894
0.1                                               0.13                                              0.3                                               6.516450523697584E13+1.7445295116708362E8i        6.516450523697584E13                              0.2345354565645458                                1.068982512924605E-12                             1.5710236424773588E-7                             -5.221209611799981+0.11725375049755518i           4.600548364631653                                 6.804369355249921E-6                              2518.115537888381                                 3387.5904881565725                                0.7433352840882111
0.1                                               0.13                                              0.3                                               6.51645235879867E13+8.332891838158736E7i          6.51645235879867E13                               0.11202780052290037                               1.359484101595934E-12                             1.740261457572734E-7                              -5.208875484832737+0.05600723942920227i           4.600547069069155                                 7.811953173358812E-6                              2789.7698940859655                                3752.4773007953177                                0.7434475069295375
0.1                                               0.13                                              0.3                                               6.7495426704591086E13+1.5579171916234533E10i      6.7495426704591086E13                             20.221404269571725                                -3.0453678758493246E-7                            1.4380006394306594E-7                             1561.4435121067202+10.471111692889226i            4.441670682550228                                 -2.1177792223062353                               567.6005672871061                                 3292.035737723965                                 0.17241628357276945
0.1                                               0.13                                              0.3                                               6.750023636455428E13+3.676833556219587E9i         6.750023636455428E13                              4.77210472973667                                  -3.22449429981604E-7                              1.555691759585384E-7                              1564.6761926978468+2.471282495009781i             4.441354195871038                                 -2.072707707004513                                620.8356641914354                                 3559.516680116277                                 0.17441571988114893
0.1                                               0.13                                              0.5                                               6.516429328737643E13+1.4520495883429107E8i        6.516429328737643E13                              0.19521493821362745                               1.0783394315552784E-12                            1.5844102825012317E-7                             -5.363665702574784+0.09759551730286938i           4.600563328108333                                 6.805935580353322E-6                              2538.7439187621326                                3416.533355250789                                 0.743075993934144
0.1                                               0.13                                              0.5                                               6.5164518184429055E13+1.4336038551409274E8i       6.5164518184429055E13                             0.1927344109936303                                1.3809485285253142E-12                            1.76665581854721E-7                               -5.2125073374131015+0.09635573810501658i          4.600547450554693                                 7.816737782353798E-6                              2832.0540171651205                                3809.3984340021534                                0.7434386468704892
0.1                                               0.13                                              0.5                                               6.746899034469832E13+2.674766532476042E10i        6.746899034469832E13                              34.731453493251536                                -2.45250433914758E-7                              1.4565856418422697E-7                             1543.675040285561+17.97770720070987i              4.443411061413009                                 -1.6837350779084173                               542.01852868456                                   3341.5634951432844                                0.16220506642245286